Title: ** sch_path: /home/slice/xschem/tb_mc_nmos/tb_mc_nmos.sch
Date: Sat Aug 10 21:34:41  2024
Plotname: Operating Point
Flags: real
No. Variables: 8
No. Points: 1
Variables:
	0	v(vth_meas)	voltage
	1	@m.xdut.xm1.msky130_fd_pr__nfet_01v8_lvt[gds]	admittance
	2	@m.xdut.xm1.msky130_fd_pr__nfet_01v8_lvt[gm]	admittance
	3	i(@m.xdut.xm1.msky130_fd_pr__nfet_01v8_lvt[id])	current
	4	v(@m.xdut.xm1.msky130_fd_pr__nfet_01v8_lvt[vds])	voltage
	5	v(@m.xdut.xm1.msky130_fd_pr__nfet_01v8_lvt[vdsat])	voltage
	6	v(@m.xdut.xm1.msky130_fd_pr__nfet_01v8_lvt[vgs])	voltage
	7	v(@m.xdut.xm1.msky130_fd_pr__nfet_01v8_lvt[vth])	voltage
Values:
 0	4.666326070239900e-01
	9.581770443366318e-07
	7.175870045798384e-05
	2.050343340639968e-05
	9.951025924246818e-01
	3.909480299151689e-01
	9.975512962721493e-01
	4.666326070239900e-01

Title: ** sch_path: /home/slice/xschem/tb_mc_nmos/tb_mc_nmos.sch
Date: Sat Aug 10 21:34:41  2024
Plotname: Operating Point
Flags: real
No. Variables: 8
No. Points: 1
Variables:
	0	v(vth_meas)	voltage
	1	@m.xdut.xm1.msky130_fd_pr__nfet_01v8_lvt[gds]	admittance
	2	@m.xdut.xm1.msky130_fd_pr__nfet_01v8_lvt[gm]	admittance
	3	i(@m.xdut.xm1.msky130_fd_pr__nfet_01v8_lvt[id])	current
	4	v(@m.xdut.xm1.msky130_fd_pr__nfet_01v8_lvt[vds])	voltage
	5	v(@m.xdut.xm1.msky130_fd_pr__nfet_01v8_lvt[vdsat])	voltage
	6	v(@m.xdut.xm1.msky130_fd_pr__nfet_01v8_lvt[vgs])	voltage
	7	v(@m.xdut.xm1.msky130_fd_pr__nfet_01v8_lvt[vth])	voltage
Values:
 0	4.697116493165167e-01
	9.487805216609414e-07
	7.132918274550439e-05
	2.026765099647488e-05
	9.951589109206819e-01
	3.891629249919604e-01
	9.975794555201494e-01
	4.697116493165167e-01

Title: ** sch_path: /home/slice/xschem/tb_mc_nmos/tb_mc_nmos.sch
Date: Sat Aug 10 21:34:41  2024
Plotname: Operating Point
Flags: real
No. Variables: 8
No. Points: 1
Variables:
	0	v(vth_meas)	voltage
	1	@m.xdut.xm1.msky130_fd_pr__nfet_01v8_lvt[gds]	admittance
	2	@m.xdut.xm1.msky130_fd_pr__nfet_01v8_lvt[gm]	admittance
	3	i(@m.xdut.xm1.msky130_fd_pr__nfet_01v8_lvt[id])	current
	4	v(@m.xdut.xm1.msky130_fd_pr__nfet_01v8_lvt[vds])	voltage
	5	v(@m.xdut.xm1.msky130_fd_pr__nfet_01v8_lvt[vdsat])	voltage
	6	v(@m.xdut.xm1.msky130_fd_pr__nfet_01v8_lvt[vgs])	voltage
	7	v(@m.xdut.xm1.msky130_fd_pr__nfet_01v8_lvt[vth])	voltage
Values:
 0	4.656550532425219e-01
	9.611771290310602e-07
	7.189507174961507e-05
	2.057857891647195e-05
	9.950846433244507e-01
	3.915140174934937e-01
	9.975423217220338e-01
	4.656550532425219e-01

Title: ** sch_path: /home/slice/xschem/tb_mc_nmos/tb_mc_nmos.sch
Date: Sat Aug 10 21:34:41  2024
Plotname: Operating Point
Flags: real
No. Variables: 8
No. Points: 1
Variables:
	0	v(vth_meas)	voltage
	1	@m.xdut.xm1.msky130_fd_pr__nfet_01v8_lvt[gds]	admittance
	2	@m.xdut.xm1.msky130_fd_pr__nfet_01v8_lvt[gm]	admittance
	3	i(@m.xdut.xm1.msky130_fd_pr__nfet_01v8_lvt[id])	current
	4	v(@m.xdut.xm1.msky130_fd_pr__nfet_01v8_lvt[vds])	voltage
	5	v(@m.xdut.xm1.msky130_fd_pr__nfet_01v8_lvt[vdsat])	voltage
	6	v(@m.xdut.xm1.msky130_fd_pr__nfet_01v8_lvt[vgs])	voltage
	7	v(@m.xdut.xm1.msky130_fd_pr__nfet_01v8_lvt[vth])	voltage
Values:
 0	4.727198663020271e-01
	9.396770842722245e-07
	7.090957517025648e-05
	2.003862245768080e-05
	9.952136162010725e-01
	3.874153784159931e-01
	9.976068081603445e-01
	4.727198663020271e-01

Title: ** sch_path: /home/slice/xschem/tb_mc_nmos/tb_mc_nmos.sch
Date: Sat Aug 10 21:34:41  2024
Plotname: Operating Point
Flags: real
No. Variables: 8
No. Points: 1
Variables:
	0	v(vth_meas)	voltage
	1	@m.xdut.xm1.msky130_fd_pr__nfet_01v8_lvt[gds]	admittance
	2	@m.xdut.xm1.msky130_fd_pr__nfet_01v8_lvt[gm]	admittance
	3	i(@m.xdut.xm1.msky130_fd_pr__nfet_01v8_lvt[id])	current
	4	v(@m.xdut.xm1.msky130_fd_pr__nfet_01v8_lvt[vds])	voltage
	5	v(@m.xdut.xm1.msky130_fd_pr__nfet_01v8_lvt[vdsat])	voltage
	6	v(@m.xdut.xm1.msky130_fd_pr__nfet_01v8_lvt[vgs])	voltage
	7	v(@m.xdut.xm1.msky130_fd_pr__nfet_01v8_lvt[vth])	voltage
Values:
 0	4.668397958193372e-01
	9.575422327345788e-07
	7.172979737947903e-05
	2.048752441147449e-05
	9.951063924141184e-01
	3.908280240343592e-01
	9.975531962668676e-01
	4.668397958193372e-01

Title: ** sch_path: /home/slice/xschem/tb_mc_nmos/tb_mc_nmos.sch
Date: Sat Aug 10 21:34:41  2024
Plotname: Operating Point
Flags: real
No. Variables: 8
No. Points: 1
Variables:
	0	v(vth_meas)	voltage
	1	@m.xdut.xm1.msky130_fd_pr__nfet_01v8_lvt[gds]	admittance
	2	@m.xdut.xm1.msky130_fd_pr__nfet_01v8_lvt[gm]	admittance
	3	i(@m.xdut.xm1.msky130_fd_pr__nfet_01v8_lvt[id])	current
	4	v(@m.xdut.xm1.msky130_fd_pr__nfet_01v8_lvt[vds])	voltage
	5	v(@m.xdut.xm1.msky130_fd_pr__nfet_01v8_lvt[vdsat])	voltage
	6	v(@m.xdut.xm1.msky130_fd_pr__nfet_01v8_lvt[vgs])	voltage
	7	v(@m.xdut.xm1.msky130_fd_pr__nfet_01v8_lvt[vth])	voltage
Values:
 0	4.701919094219736e-01
	9.473220855943412e-07
	7.126219044361052e-05
	2.023099848165768e-05
	9.951676656641329e-01
	3.888841624383583e-01
	9.975838328918748e-01
	4.701919094219736e-01

Title: ** sch_path: /home/slice/xschem/tb_mc_nmos/tb_mc_nmos.sch
Date: Sat Aug 10 21:34:41  2024
Plotname: Operating Point
Flags: real
No. Variables: 8
No. Points: 1
Variables:
	0	v(vth_meas)	voltage
	1	@m.xdut.xm1.msky130_fd_pr__nfet_01v8_lvt[gds]	admittance
	2	@m.xdut.xm1.msky130_fd_pr__nfet_01v8_lvt[gm]	admittance
	3	i(@m.xdut.xm1.msky130_fd_pr__nfet_01v8_lvt[id])	current
	4	v(@m.xdut.xm1.msky130_fd_pr__nfet_01v8_lvt[vds])	voltage
	5	v(@m.xdut.xm1.msky130_fd_pr__nfet_01v8_lvt[vdsat])	voltage
	6	v(@m.xdut.xm1.msky130_fd_pr__nfet_01v8_lvt[vgs])	voltage
	7	v(@m.xdut.xm1.msky130_fd_pr__nfet_01v8_lvt[vth])	voltage
Values:
 0	4.672231661839580e-01
	9.563685752286895e-07
	7.167631705598246e-05
	2.045810374166338e-05
	9.951134197741133e-01
	3.906059286537685e-01
	9.975567099468652e-01
	4.672231661839580e-01

Title: ** sch_path: /home/slice/xschem/tb_mc_nmos/tb_mc_nmos.sch
Date: Sat Aug 10 21:34:41  2024
Plotname: Operating Point
Flags: real
No. Variables: 8
No. Points: 1
Variables:
	0	v(vth_meas)	voltage
	1	@m.xdut.xm1.msky130_fd_pr__nfet_01v8_lvt[gds]	admittance
	2	@m.xdut.xm1.msky130_fd_pr__nfet_01v8_lvt[gm]	admittance
	3	i(@m.xdut.xm1.msky130_fd_pr__nfet_01v8_lvt[id])	current
	4	v(@m.xdut.xm1.msky130_fd_pr__nfet_01v8_lvt[vds])	voltage
	5	v(@m.xdut.xm1.msky130_fd_pr__nfet_01v8_lvt[vdsat])	voltage
	6	v(@m.xdut.xm1.msky130_fd_pr__nfet_01v8_lvt[vgs])	voltage
	7	v(@m.xdut.xm1.msky130_fd_pr__nfet_01v8_lvt[vth])	voltage
Values:
 0	4.694866884288237e-01
	9.494643408514591e-07
	7.136056318772231e-05
	2.028483109868759e-05
	9.951548073172025e-01
	3.892934711152575e-01
	9.975774037184096e-01
	4.694866884288237e-01

Title: ** sch_path: /home/slice/xschem/tb_mc_nmos/tb_mc_nmos.sch
Date: Sat Aug 10 21:34:41  2024
Plotname: Operating Point
Flags: real
No. Variables: 8
No. Points: 1
Variables:
	0	v(vth_meas)	voltage
	1	@m.xdut.xm1.msky130_fd_pr__nfet_01v8_lvt[gds]	admittance
	2	@m.xdut.xm1.msky130_fd_pr__nfet_01v8_lvt[gm]	admittance
	3	i(@m.xdut.xm1.msky130_fd_pr__nfet_01v8_lvt[id])	current
	4	v(@m.xdut.xm1.msky130_fd_pr__nfet_01v8_lvt[vds])	voltage
	5	v(@m.xdut.xm1.msky130_fd_pr__nfet_01v8_lvt[vdsat])	voltage
	6	v(@m.xdut.xm1.msky130_fd_pr__nfet_01v8_lvt[vgs])	voltage
	7	v(@m.xdut.xm1.msky130_fd_pr__nfet_01v8_lvt[vth])	voltage
Values:
 0	4.659300634161397e-01
	9.603323072171148e-07
	7.185670689042246e-05
	2.055742460085102e-05
	9.950896962002782e-01
	3.913548280941917e-01
	9.975448481599476e-01
	4.659300634161397e-01

Title: ** sch_path: /home/slice/xschem/tb_mc_nmos/tb_mc_nmos.sch
Date: Sat Aug 10 21:34:41  2024
Plotname: Operating Point
Flags: real
No. Variables: 8
No. Points: 1
Variables:
	0	v(vth_meas)	voltage
	1	@m.xdut.xm1.msky130_fd_pr__nfet_01v8_lvt[gds]	admittance
	2	@m.xdut.xm1.msky130_fd_pr__nfet_01v8_lvt[gm]	admittance
	3	i(@m.xdut.xm1.msky130_fd_pr__nfet_01v8_lvt[id])	current
	4	v(@m.xdut.xm1.msky130_fd_pr__nfet_01v8_lvt[vds])	voltage
	5	v(@m.xdut.xm1.msky130_fd_pr__nfet_01v8_lvt[vdsat])	voltage
	6	v(@m.xdut.xm1.msky130_fd_pr__nfet_01v8_lvt[vgs])	voltage
	7	v(@m.xdut.xm1.msky130_fd_pr__nfet_01v8_lvt[vth])	voltage
Values:
 0	4.615832602807843e-01
	9.737614706918987e-07
	7.246311749283922e-05
	2.089307223243004e-05
	9.950095241051559e-01
	3.938675839854631e-01
	9.975047621123866e-01
	4.615832602807843e-01

Title: ** sch_path: /home/slice/xschem/tb_mc_nmos/tb_mc_nmos.sch
Date: Sat Aug 10 21:34:41  2024
Plotname: Operating Point
Flags: real
No. Variables: 8
No. Points: 1
Variables:
	0	v(vth_meas)	voltage
	1	@m.xdut.xm1.msky130_fd_pr__nfet_01v8_lvt[gds]	admittance
	2	@m.xdut.xm1.msky130_fd_pr__nfet_01v8_lvt[gm]	admittance
	3	i(@m.xdut.xm1.msky130_fd_pr__nfet_01v8_lvt[id])	current
	4	v(@m.xdut.xm1.msky130_fd_pr__nfet_01v8_lvt[vds])	voltage
	5	v(@m.xdut.xm1.msky130_fd_pr__nfet_01v8_lvt[vdsat])	voltage
	6	v(@m.xdut.xm1.msky130_fd_pr__nfet_01v8_lvt[vgs])	voltage
	7	v(@m.xdut.xm1.msky130_fd_pr__nfet_01v8_lvt[vth])	voltage
Values:
 0	4.688367556873747e-01
	9.514423499743624e-07
	7.145122508991748e-05
	2.033450730144345e-05
	9.951429417627399e-01
	3.896705221099791e-01
	9.975714709411786e-01
	4.688367556873747e-01

Title: ** sch_path: /home/slice/xschem/tb_mc_nmos/tb_mc_nmos.sch
Date: Sat Aug 10 21:34:41  2024
Plotname: Operating Point
Flags: real
No. Variables: 8
No. Points: 1
Variables:
	0	v(vth_meas)	voltage
	1	@m.xdut.xm1.msky130_fd_pr__nfet_01v8_lvt[gds]	admittance
	2	@m.xdut.xm1.msky130_fd_pr__nfet_01v8_lvt[gm]	admittance
	3	i(@m.xdut.xm1.msky130_fd_pr__nfet_01v8_lvt[id])	current
	4	v(@m.xdut.xm1.msky130_fd_pr__nfet_01v8_lvt[vds])	voltage
	5	v(@m.xdut.xm1.msky130_fd_pr__nfet_01v8_lvt[vdsat])	voltage
	6	v(@m.xdut.xm1.msky130_fd_pr__nfet_01v8_lvt[vgs])	voltage
	7	v(@m.xdut.xm1.msky130_fd_pr__nfet_01v8_lvt[vth])	voltage
Values:
 0	4.656901280752845e-01
	9.610693444375317e-07
	7.189017868108324e-05
	2.057588028191399e-05
	9.950852879146880e-01
	3.914937160676120e-01
	9.975426440171524e-01
	4.656901280752845e-01

Title: ** sch_path: /home/slice/xschem/tb_mc_nmos/tb_mc_nmos.sch
Date: Sat Aug 10 21:34:41  2024
Plotname: Operating Point
Flags: real
No. Variables: 8
No. Points: 1
Variables:
	0	v(vth_meas)	voltage
	1	@m.xdut.xm1.msky130_fd_pr__nfet_01v8_lvt[gds]	admittance
	2	@m.xdut.xm1.msky130_fd_pr__nfet_01v8_lvt[gm]	admittance
	3	i(@m.xdut.xm1.msky130_fd_pr__nfet_01v8_lvt[id])	current
	4	v(@m.xdut.xm1.msky130_fd_pr__nfet_01v8_lvt[vds])	voltage
	5	v(@m.xdut.xm1.msky130_fd_pr__nfet_01v8_lvt[vdsat])	voltage
	6	v(@m.xdut.xm1.msky130_fd_pr__nfet_01v8_lvt[vgs])	voltage
	7	v(@m.xdut.xm1.msky130_fd_pr__nfet_01v8_lvt[vth])	voltage
Values:
 0	4.638622187793061e-01
	9.667005125788521e-07
	7.214518215935563e-05
	2.071675606256986e-05
	9.950516386187459e-01
	3.925510886776650e-01
	9.975258193691816e-01
	4.638622187793061e-01

Title: ** sch_path: /home/slice/xschem/tb_mc_nmos/tb_mc_nmos.sch
Date: Sat Aug 10 21:34:41  2024
Plotname: Operating Point
Flags: real
No. Variables: 8
No. Points: 1
Variables:
	0	v(vth_meas)	voltage
	1	@m.xdut.xm1.msky130_fd_pr__nfet_01v8_lvt[gds]	admittance
	2	@m.xdut.xm1.msky130_fd_pr__nfet_01v8_lvt[gm]	admittance
	3	i(@m.xdut.xm1.msky130_fd_pr__nfet_01v8_lvt[id])	current
	4	v(@m.xdut.xm1.msky130_fd_pr__nfet_01v8_lvt[vds])	voltage
	5	v(@m.xdut.xm1.msky130_fd_pr__nfet_01v8_lvt[vdsat])	voltage
	6	v(@m.xdut.xm1.msky130_fd_pr__nfet_01v8_lvt[vgs])	voltage
	7	v(@m.xdut.xm1.msky130_fd_pr__nfet_01v8_lvt[vth])	voltage
Values:
 0	4.641488243032619e-01
	9.658156843875577e-07
	7.210519867277670e-05
	2.069463553450235e-05
	9.950569222820691e-01
	3.923853833565876e-01
	9.975284612008430e-01
	4.641488243032619e-01

Title: ** sch_path: /home/slice/xschem/tb_mc_nmos/tb_mc_nmos.sch
Date: Sat Aug 10 21:34:41  2024
Plotname: Operating Point
Flags: real
No. Variables: 8
No. Points: 1
Variables:
	0	v(vth_meas)	voltage
	1	@m.xdut.xm1.msky130_fd_pr__nfet_01v8_lvt[gds]	admittance
	2	@m.xdut.xm1.msky130_fd_pr__nfet_01v8_lvt[gm]	admittance
	3	i(@m.xdut.xm1.msky130_fd_pr__nfet_01v8_lvt[id])	current
	4	v(@m.xdut.xm1.msky130_fd_pr__nfet_01v8_lvt[vds])	voltage
	5	v(@m.xdut.xm1.msky130_fd_pr__nfet_01v8_lvt[vdsat])	voltage
	6	v(@m.xdut.xm1.msky130_fd_pr__nfet_01v8_lvt[vgs])	voltage
	7	v(@m.xdut.xm1.msky130_fd_pr__nfet_01v8_lvt[vth])	voltage
Values:
 0	4.660883614961095e-01
	9.598463134894250e-07
	7.183462384566614e-05
	2.054525298129792e-05
	9.950926034880075e-01
	3.912631842624054e-01
	9.975463018038122e-01
	4.660883614961095e-01

Title: ** sch_path: /home/slice/xschem/tb_mc_nmos/tb_mc_nmos.sch
Date: Sat Aug 10 21:34:41  2024
Plotname: Operating Point
Flags: real
No. Variables: 8
No. Points: 1
Variables:
	0	v(vth_meas)	voltage
	1	@m.xdut.xm1.msky130_fd_pr__nfet_01v8_lvt[gds]	admittance
	2	@m.xdut.xm1.msky130_fd_pr__nfet_01v8_lvt[gm]	admittance
	3	i(@m.xdut.xm1.msky130_fd_pr__nfet_01v8_lvt[id])	current
	4	v(@m.xdut.xm1.msky130_fd_pr__nfet_01v8_lvt[vds])	voltage
	5	v(@m.xdut.xm1.msky130_fd_pr__nfet_01v8_lvt[vdsat])	voltage
	6	v(@m.xdut.xm1.msky130_fd_pr__nfet_01v8_lvt[vgs])	voltage
	7	v(@m.xdut.xm1.msky130_fd_pr__nfet_01v8_lvt[vth])	voltage
Values:
 0	4.645940694203447e-01
	9.644424921808064e-07
	7.204308414653605e-05
	2.066029464990985e-05
	9.950651248743326e-01
	3.921278957909674e-01
	9.975325624969749e-01
	4.645940694203447e-01

Title: ** sch_path: /home/slice/xschem/tb_mc_nmos/tb_mc_nmos.sch
Date: Sat Aug 10 21:34:41  2024
Plotname: Operating Point
Flags: real
No. Variables: 8
No. Points: 1
Variables:
	0	v(vth_meas)	voltage
	1	@m.xdut.xm1.msky130_fd_pr__nfet_01v8_lvt[gds]	admittance
	2	@m.xdut.xm1.msky130_fd_pr__nfet_01v8_lvt[gm]	admittance
	3	i(@m.xdut.xm1.msky130_fd_pr__nfet_01v8_lvt[id])	current
	4	v(@m.xdut.xm1.msky130_fd_pr__nfet_01v8_lvt[vds])	voltage
	5	v(@m.xdut.xm1.msky130_fd_pr__nfet_01v8_lvt[vdsat])	voltage
	6	v(@m.xdut.xm1.msky130_fd_pr__nfet_01v8_lvt[vgs])	voltage
	7	v(@m.xdut.xm1.msky130_fd_pr__nfet_01v8_lvt[vth])	voltage
Values:
 0	4.598988175237268e-01
	9.790093612193792e-07
	7.269811648739044e-05
	2.102387597197379e-05
	9.949782805960043e-01
	3.948393651129898e-01
	9.974891403578108e-01
	4.598988175237268e-01

Title: ** sch_path: /home/slice/xschem/tb_mc_nmos/tb_mc_nmos.sch
Date: Sat Aug 10 21:34:41  2024
Plotname: Operating Point
Flags: real
No. Variables: 8
No. Points: 1
Variables:
	0	v(vth_meas)	voltage
	1	@m.xdut.xm1.msky130_fd_pr__nfet_01v8_lvt[gds]	admittance
	2	@m.xdut.xm1.msky130_fd_pr__nfet_01v8_lvt[gm]	admittance
	3	i(@m.xdut.xm1.msky130_fd_pr__nfet_01v8_lvt[id])	current
	4	v(@m.xdut.xm1.msky130_fd_pr__nfet_01v8_lvt[vds])	voltage
	5	v(@m.xdut.xm1.msky130_fd_pr__nfet_01v8_lvt[vdsat])	voltage
	6	v(@m.xdut.xm1.msky130_fd_pr__nfet_01v8_lvt[vgs])	voltage
	7	v(@m.xdut.xm1.msky130_fd_pr__nfet_01v8_lvt[vth])	voltage
Values:
 0	4.675997639545330e-01
	9.552168657516455e-07
	7.162378189017201e-05
	2.042922358725528e-05
	9.951203180277237e-01
	3.903877020297549e-01
	9.975601590736703e-01
	4.675997639545330e-01

Title: ** sch_path: /home/slice/xschem/tb_mc_nmos/tb_mc_nmos.sch
Date: Sat Aug 10 21:34:41  2024
Plotname: Operating Point
Flags: real
No. Variables: 8
No. Points: 1
Variables:
	0	v(vth_meas)	voltage
	1	@m.xdut.xm1.msky130_fd_pr__nfet_01v8_lvt[gds]	admittance
	2	@m.xdut.xm1.msky130_fd_pr__nfet_01v8_lvt[gm]	admittance
	3	i(@m.xdut.xm1.msky130_fd_pr__nfet_01v8_lvt[id])	current
	4	v(@m.xdut.xm1.msky130_fd_pr__nfet_01v8_lvt[vds])	voltage
	5	v(@m.xdut.xm1.msky130_fd_pr__nfet_01v8_lvt[vdsat])	voltage
	6	v(@m.xdut.xm1.msky130_fd_pr__nfet_01v8_lvt[vgs])	voltage
	7	v(@m.xdut.xm1.msky130_fd_pr__nfet_01v8_lvt[vth])	voltage
Values:
 0	4.640327276945254e-01
	9.661740207335597e-07
	7.212139494862159e-05
	2.070359456299072e-05
	9.950547823471594e-01
	3.924525101564746e-01
	9.975273912333882e-01
	4.640327276945254e-01

Title: ** sch_path: /home/slice/xschem/tb_mc_nmos/tb_mc_nmos.sch
Date: Sat Aug 10 21:34:41  2024
Plotname: Operating Point
Flags: real
No. Variables: 8
No. Points: 1
Variables:
	0	v(vth_meas)	voltage
	1	@m.xdut.xm1.msky130_fd_pr__nfet_01v8_lvt[gds]	admittance
	2	@m.xdut.xm1.msky130_fd_pr__nfet_01v8_lvt[gm]	admittance
	3	i(@m.xdut.xm1.msky130_fd_pr__nfet_01v8_lvt[id])	current
	4	v(@m.xdut.xm1.msky130_fd_pr__nfet_01v8_lvt[vds])	voltage
	5	v(@m.xdut.xm1.msky130_fd_pr__nfet_01v8_lvt[vdsat])	voltage
	6	v(@m.xdut.xm1.msky130_fd_pr__nfet_01v8_lvt[vgs])	voltage
	7	v(@m.xdut.xm1.msky130_fd_pr__nfet_01v8_lvt[vth])	voltage
Values:
 0	4.605799374147678e-01
	9.768843537863778e-07
	7.260309217802144e-05
	2.097093481312277e-05
	9.949909260110880e-01
	3.944465473004439e-01
	9.974954630653527e-01
	4.605799374147678e-01

Title: ** sch_path: /home/slice/xschem/tb_mc_nmos/tb_mc_nmos.sch
Date: Sat Aug 10 21:34:41  2024
Plotname: Operating Point
Flags: real
No. Variables: 8
No. Points: 1
Variables:
	0	v(vth_meas)	voltage
	1	@m.xdut.xm1.msky130_fd_pr__nfet_01v8_lvt[gds]	admittance
	2	@m.xdut.xm1.msky130_fd_pr__nfet_01v8_lvt[gm]	admittance
	3	i(@m.xdut.xm1.msky130_fd_pr__nfet_01v8_lvt[id])	current
	4	v(@m.xdut.xm1.msky130_fd_pr__nfet_01v8_lvt[vds])	voltage
	5	v(@m.xdut.xm1.msky130_fd_pr__nfet_01v8_lvt[vdsat])	voltage
	6	v(@m.xdut.xm1.msky130_fd_pr__nfet_01v8_lvt[vgs])	voltage
	7	v(@m.xdut.xm1.msky130_fd_pr__nfet_01v8_lvt[vth])	voltage
Values:
 0	4.664257172802596e-01
	9.588113039751745e-07
	7.178756192488512e-05
	2.051932565481617e-05
	9.950987964352810e-01
	3.910678461888733e-01
	9.975493982774490e-01
	4.664257172802596e-01

Title: ** sch_path: /home/slice/xschem/tb_mc_nmos/tb_mc_nmos.sch
Date: Sat Aug 10 21:34:41  2024
Plotname: Operating Point
Flags: real
No. Variables: 8
No. Points: 1
Variables:
	0	v(vth_meas)	voltage
	1	@m.xdut.xm1.msky130_fd_pr__nfet_01v8_lvt[gds]	admittance
	2	@m.xdut.xm1.msky130_fd_pr__nfet_01v8_lvt[gm]	admittance
	3	i(@m.xdut.xm1.msky130_fd_pr__nfet_01v8_lvt[id])	current
	4	v(@m.xdut.xm1.msky130_fd_pr__nfet_01v8_lvt[vds])	voltage
	5	v(@m.xdut.xm1.msky130_fd_pr__nfet_01v8_lvt[vdsat])	voltage
	6	v(@m.xdut.xm1.msky130_fd_pr__nfet_01v8_lvt[vgs])	voltage
	7	v(@m.xdut.xm1.msky130_fd_pr__nfet_01v8_lvt[vth])	voltage
Values:
 0	4.658508086324599e-01
	9.605757090029515e-07
	7.186776318605321e-05
	2.056351990705878e-05
	9.950882402881159e-01
	3.914007076256218e-01
	9.975441202038664e-01
	4.658508086324599e-01

Title: ** sch_path: /home/slice/xschem/tb_mc_nmos/tb_mc_nmos.sch
Date: Sat Aug 10 21:34:41  2024
Plotname: Operating Point
Flags: real
No. Variables: 8
No. Points: 1
Variables:
	0	v(vth_meas)	voltage
	1	@m.xdut.xm1.msky130_fd_pr__nfet_01v8_lvt[gds]	admittance
	2	@m.xdut.xm1.msky130_fd_pr__nfet_01v8_lvt[gm]	admittance
	3	i(@m.xdut.xm1.msky130_fd_pr__nfet_01v8_lvt[id])	current
	4	v(@m.xdut.xm1.msky130_fd_pr__nfet_01v8_lvt[vds])	voltage
	5	v(@m.xdut.xm1.msky130_fd_pr__nfet_01v8_lvt[vdsat])	voltage
	6	v(@m.xdut.xm1.msky130_fd_pr__nfet_01v8_lvt[vgs])	voltage
	7	v(@m.xdut.xm1.msky130_fd_pr__nfet_01v8_lvt[vth])	voltage
Values:
 0	4.698342164995277e-01
	9.484081301386941e-07
	7.131208556629843e-05
	2.025829372278032e-05
	9.951611459796130e-01
	3.890917903871821e-01
	9.975805730496150e-01
	4.698342164995277e-01

Title: ** sch_path: /home/slice/xschem/tb_mc_nmos/tb_mc_nmos.sch
Date: Sat Aug 10 21:34:41  2024
Plotname: Operating Point
Flags: real
No. Variables: 8
No. Points: 1
Variables:
	0	v(vth_meas)	voltage
	1	@m.xdut.xm1.msky130_fd_pr__nfet_01v8_lvt[gds]	admittance
	2	@m.xdut.xm1.msky130_fd_pr__nfet_01v8_lvt[gm]	admittance
	3	i(@m.xdut.xm1.msky130_fd_pr__nfet_01v8_lvt[id])	current
	4	v(@m.xdut.xm1.msky130_fd_pr__nfet_01v8_lvt[vds])	voltage
	5	v(@m.xdut.xm1.msky130_fd_pr__nfet_01v8_lvt[vdsat])	voltage
	6	v(@m.xdut.xm1.msky130_fd_pr__nfet_01v8_lvt[vgs])	voltage
	7	v(@m.xdut.xm1.msky130_fd_pr__nfet_01v8_lvt[vth])	voltage
Values:
 0	4.611326824859633e-01
	9.751628299720677e-07
	7.252597797430873e-05
	2.092802116111004e-05
	9.950011762767462e-01
	3.941276357116643e-01
	9.975005881981818e-01
	4.611326824859633e-01

Title: ** sch_path: /home/slice/xschem/tb_mc_nmos/tb_mc_nmos.sch
Date: Sat Aug 10 21:34:41  2024
Plotname: Operating Point
Flags: real
No. Variables: 8
No. Points: 1
Variables:
	0	v(vth_meas)	voltage
	1	@m.xdut.xm1.msky130_fd_pr__nfet_01v8_lvt[gds]	admittance
	2	@m.xdut.xm1.msky130_fd_pr__nfet_01v8_lvt[gm]	admittance
	3	i(@m.xdut.xm1.msky130_fd_pr__nfet_01v8_lvt[id])	current
	4	v(@m.xdut.xm1.msky130_fd_pr__nfet_01v8_lvt[vds])	voltage
	5	v(@m.xdut.xm1.msky130_fd_pr__nfet_01v8_lvt[vdsat])	voltage
	6	v(@m.xdut.xm1.msky130_fd_pr__nfet_01v8_lvt[vgs])	voltage
	7	v(@m.xdut.xm1.msky130_fd_pr__nfet_01v8_lvt[vth])	voltage
Values:
 0	4.678942489529965e-01
	9.543171104623459e-07
	7.158270167769211e-05
	2.040665476034231e-05
	9.951257087707768e-01
	3.902170193733400e-01
	9.975628544451967e-01
	4.678942489529965e-01

Title: ** sch_path: /home/slice/xschem/tb_mc_nmos/tb_mc_nmos.sch
Date: Sat Aug 10 21:34:41  2024
Plotname: Operating Point
Flags: real
No. Variables: 8
No. Points: 1
Variables:
	0	v(vth_meas)	voltage
	1	@m.xdut.xm1.msky130_fd_pr__nfet_01v8_lvt[gds]	admittance
	2	@m.xdut.xm1.msky130_fd_pr__nfet_01v8_lvt[gm]	admittance
	3	i(@m.xdut.xm1.msky130_fd_pr__nfet_01v8_lvt[id])	current
	4	v(@m.xdut.xm1.msky130_fd_pr__nfet_01v8_lvt[vds])	voltage
	5	v(@m.xdut.xm1.msky130_fd_pr__nfet_01v8_lvt[vdsat])	voltage
	6	v(@m.xdut.xm1.msky130_fd_pr__nfet_01v8_lvt[vgs])	voltage
	7	v(@m.xdut.xm1.msky130_fd_pr__nfet_01v8_lvt[vth])	voltage
Values:
 0	4.688412531294716e-01
	9.514286502053172e-07
	7.145059771791053e-05
	2.033416333835694e-05
	9.951430239210477e-01
	3.896679135261238e-01
	9.975715120203322e-01
	4.688412531294716e-01

Title: ** sch_path: /home/slice/xschem/tb_mc_nmos/tb_mc_nmos.sch
Date: Sat Aug 10 21:34:41  2024
Plotname: Operating Point
Flags: real
No. Variables: 8
No. Points: 1
Variables:
	0	v(vth_meas)	voltage
	1	@m.xdut.xm1.msky130_fd_pr__nfet_01v8_lvt[gds]	admittance
	2	@m.xdut.xm1.msky130_fd_pr__nfet_01v8_lvt[gm]	admittance
	3	i(@m.xdut.xm1.msky130_fd_pr__nfet_01v8_lvt[id])	current
	4	v(@m.xdut.xm1.msky130_fd_pr__nfet_01v8_lvt[vds])	voltage
	5	v(@m.xdut.xm1.msky130_fd_pr__nfet_01v8_lvt[vdsat])	voltage
	6	v(@m.xdut.xm1.msky130_fd_pr__nfet_01v8_lvt[vgs])	voltage
	7	v(@m.xdut.xm1.msky130_fd_pr__nfet_01v8_lvt[vth])	voltage
Values:
 0	4.667913940878823e-01
	9.576904994991350e-07
	7.173654946777253e-05
	2.049124038149175e-05
	9.951055048252492e-01
	3.908560602856185e-01
	9.975527524724331e-01
	4.667913940878823e-01

Title: ** sch_path: /home/slice/xschem/tb_mc_nmos/tb_mc_nmos.sch
Date: Sat Aug 10 21:34:41  2024
Plotname: Operating Point
Flags: real
No. Variables: 8
No. Points: 1
Variables:
	0	v(vth_meas)	voltage
	1	@m.xdut.xm1.msky130_fd_pr__nfet_01v8_lvt[gds]	admittance
	2	@m.xdut.xm1.msky130_fd_pr__nfet_01v8_lvt[gm]	admittance
	3	i(@m.xdut.xm1.msky130_fd_pr__nfet_01v8_lvt[id])	current
	4	v(@m.xdut.xm1.msky130_fd_pr__nfet_01v8_lvt[vds])	voltage
	5	v(@m.xdut.xm1.msky130_fd_pr__nfet_01v8_lvt[vdsat])	voltage
	6	v(@m.xdut.xm1.msky130_fd_pr__nfet_01v8_lvt[vgs])	voltage
	7	v(@m.xdut.xm1.msky130_fd_pr__nfet_01v8_lvt[vth])	voltage
Values:
 0	4.648872005225643e-01
	9.635393668264590e-07
	7.200219070177895e-05
	2.063770171350868e-05
	9.950705213761274e-01
	3.919583351282485e-01
	9.975352607478722e-01
	4.648872005225643e-01

Title: ** sch_path: /home/slice/xschem/tb_mc_nmos/tb_mc_nmos.sch
Date: Sat Aug 10 21:34:41  2024
Plotname: Operating Point
Flags: real
No. Variables: 8
No. Points: 1
Variables:
	0	v(vth_meas)	voltage
	1	@m.xdut.xm1.msky130_fd_pr__nfet_01v8_lvt[gds]	admittance
	2	@m.xdut.xm1.msky130_fd_pr__nfet_01v8_lvt[gm]	admittance
	3	i(@m.xdut.xm1.msky130_fd_pr__nfet_01v8_lvt[id])	current
	4	v(@m.xdut.xm1.msky130_fd_pr__nfet_01v8_lvt[vds])	voltage
	5	v(@m.xdut.xm1.msky130_fd_pr__nfet_01v8_lvt[vdsat])	voltage
	6	v(@m.xdut.xm1.msky130_fd_pr__nfet_01v8_lvt[vgs])	voltage
	7	v(@m.xdut.xm1.msky130_fd_pr__nfet_01v8_lvt[vth])	voltage
Values:
 0	4.645342396408916e-01
	9.646269158670491e-07
	7.205143075949608e-05
	2.066490753200828e-05
	9.950640230509094e-01
	3.921625000765540e-01
	9.975320115852634e-01
	4.645342396408916e-01

Title: ** sch_path: /home/slice/xschem/tb_mc_nmos/tb_mc_nmos.sch
Date: Sat Aug 10 21:34:41  2024
Plotname: Operating Point
Flags: real
No. Variables: 8
No. Points: 1
Variables:
	0	v(vth_meas)	voltage
	1	@m.xdut.xm1.msky130_fd_pr__nfet_01v8_lvt[gds]	admittance
	2	@m.xdut.xm1.msky130_fd_pr__nfet_01v8_lvt[gm]	admittance
	3	i(@m.xdut.xm1.msky130_fd_pr__nfet_01v8_lvt[id])	current
	4	v(@m.xdut.xm1.msky130_fd_pr__nfet_01v8_lvt[vds])	voltage
	5	v(@m.xdut.xm1.msky130_fd_pr__nfet_01v8_lvt[vdsat])	voltage
	6	v(@m.xdut.xm1.msky130_fd_pr__nfet_01v8_lvt[vgs])	voltage
	7	v(@m.xdut.xm1.msky130_fd_pr__nfet_01v8_lvt[vth])	voltage
Values:
 0	4.640903788045965e-01
	9.659960640425338e-07
	7.211335221899029e-05
	2.069914545548958e-05
	9.950558450517225e-01
	3.924191770582484e-01
	9.975279225856699e-01
	4.640903788045965e-01

Title: ** sch_path: /home/slice/xschem/tb_mc_nmos/tb_mc_nmos.sch
Date: Sat Aug 10 21:34:41  2024
Plotname: Operating Point
Flags: real
No. Variables: 8
No. Points: 1
Variables:
	0	v(vth_meas)	voltage
	1	@m.xdut.xm1.msky130_fd_pr__nfet_01v8_lvt[gds]	admittance
	2	@m.xdut.xm1.msky130_fd_pr__nfet_01v8_lvt[gm]	admittance
	3	i(@m.xdut.xm1.msky130_fd_pr__nfet_01v8_lvt[id])	current
	4	v(@m.xdut.xm1.msky130_fd_pr__nfet_01v8_lvt[vds])	voltage
	5	v(@m.xdut.xm1.msky130_fd_pr__nfet_01v8_lvt[vdsat])	voltage
	6	v(@m.xdut.xm1.msky130_fd_pr__nfet_01v8_lvt[vgs])	voltage
	7	v(@m.xdut.xm1.msky130_fd_pr__nfet_01v8_lvt[vth])	voltage
Values:
 0	4.670004134220737e-01
	9.570503629597915e-07
	7.170739111154980e-05
	2.047519567324722e-05
	9.951093372308871e-01
	3.907349813626706e-01
	9.975546686752520e-01
	4.670004134220737e-01

Title: ** sch_path: /home/slice/xschem/tb_mc_nmos/tb_mc_nmos.sch
Date: Sat Aug 10 21:34:41  2024
Plotname: Operating Point
Flags: real
No. Variables: 8
No. Points: 1
Variables:
	0	v(vth_meas)	voltage
	1	@m.xdut.xm1.msky130_fd_pr__nfet_01v8_lvt[gds]	admittance
	2	@m.xdut.xm1.msky130_fd_pr__nfet_01v8_lvt[gm]	admittance
	3	i(@m.xdut.xm1.msky130_fd_pr__nfet_01v8_lvt[id])	current
	4	v(@m.xdut.xm1.msky130_fd_pr__nfet_01v8_lvt[vds])	voltage
	5	v(@m.xdut.xm1.msky130_fd_pr__nfet_01v8_lvt[vdsat])	voltage
	6	v(@m.xdut.xm1.msky130_fd_pr__nfet_01v8_lvt[vgs])	voltage
	7	v(@m.xdut.xm1.msky130_fd_pr__nfet_01v8_lvt[vth])	voltage
Values:
 0	4.601517679900298e-01
	9.782197156051699e-07
	7.266282685286892e-05
	2.100420714474788e-05
	9.949829786511636e-01
	3.946935033788490e-01
	9.974914893853905e-01
	4.601517679900298e-01

Title: ** sch_path: /home/slice/xschem/tb_mc_nmos/tb_mc_nmos.sch
Date: Sat Aug 10 21:34:41  2024
Plotname: Operating Point
Flags: real
No. Variables: 8
No. Points: 1
Variables:
	0	v(vth_meas)	voltage
	1	@m.xdut.xm1.msky130_fd_pr__nfet_01v8_lvt[gds]	admittance
	2	@m.xdut.xm1.msky130_fd_pr__nfet_01v8_lvt[gm]	admittance
	3	i(@m.xdut.xm1.msky130_fd_pr__nfet_01v8_lvt[id])	current
	4	v(@m.xdut.xm1.msky130_fd_pr__nfet_01v8_lvt[vds])	voltage
	5	v(@m.xdut.xm1.msky130_fd_pr__nfet_01v8_lvt[vdsat])	voltage
	6	v(@m.xdut.xm1.msky130_fd_pr__nfet_01v8_lvt[vgs])	voltage
	7	v(@m.xdut.xm1.msky130_fd_pr__nfet_01v8_lvt[vth])	voltage
Values:
 0	4.632326451653122e-01
	9.686466561526493e-07
	7.223301260218885e-05
	2.076538904761547e-05
	9.950400222450961e-01
	3.929149757973502e-01
	9.975200111823567e-01
	4.632326451653122e-01

Title: ** sch_path: /home/slice/xschem/tb_mc_nmos/tb_mc_nmos.sch
Date: Sat Aug 10 21:34:41  2024
Plotname: Operating Point
Flags: real
No. Variables: 8
No. Points: 1
Variables:
	0	v(vth_meas)	voltage
	1	@m.xdut.xm1.msky130_fd_pr__nfet_01v8_lvt[gds]	admittance
	2	@m.xdut.xm1.msky130_fd_pr__nfet_01v8_lvt[gm]	admittance
	3	i(@m.xdut.xm1.msky130_fd_pr__nfet_01v8_lvt[id])	current
	4	v(@m.xdut.xm1.msky130_fd_pr__nfet_01v8_lvt[vds])	voltage
	5	v(@m.xdut.xm1.msky130_fd_pr__nfet_01v8_lvt[vdsat])	voltage
	6	v(@m.xdut.xm1.msky130_fd_pr__nfet_01v8_lvt[vgs])	voltage
	7	v(@m.xdut.xm1.msky130_fd_pr__nfet_01v8_lvt[vth])	voltage
Values:
 0	4.686371352317367e-01
	9.520505905805262e-07
	7.147907126627809e-05
	2.034977717592236e-05
	9.951392944322839e-01
	3.897862971716521e-01
	9.975696472759504e-01
	4.686371352317367e-01

Title: ** sch_path: /home/slice/xschem/tb_mc_nmos/tb_mc_nmos.sch
Date: Sat Aug 10 21:34:41  2024
Plotname: Operating Point
Flags: real
No. Variables: 8
No. Points: 1
Variables:
	0	v(vth_meas)	voltage
	1	@m.xdut.xm1.msky130_fd_pr__nfet_01v8_lvt[gds]	admittance
	2	@m.xdut.xm1.msky130_fd_pr__nfet_01v8_lvt[gm]	admittance
	3	i(@m.xdut.xm1.msky130_fd_pr__nfet_01v8_lvt[id])	current
	4	v(@m.xdut.xm1.msky130_fd_pr__nfet_01v8_lvt[vds])	voltage
	5	v(@m.xdut.xm1.msky130_fd_pr__nfet_01v8_lvt[vdsat])	voltage
	6	v(@m.xdut.xm1.msky130_fd_pr__nfet_01v8_lvt[vgs])	voltage
	7	v(@m.xdut.xm1.msky130_fd_pr__nfet_01v8_lvt[vth])	voltage
Values:
 0	4.662544028676300e-01
	9.593367764489811e-07
	7.181146065214042e-05
	2.053248988295520e-05
	9.950956520551298e-01
	3.911670472853064e-01
	9.975478260873735e-01
	4.662544028676300e-01

Title: ** sch_path: /home/slice/xschem/tb_mc_nmos/tb_mc_nmos.sch
Date: Sat Aug 10 21:34:41  2024
Plotname: Operating Point
Flags: real
No. Variables: 8
No. Points: 1
Variables:
	0	v(vth_meas)	voltage
	1	@m.xdut.xm1.msky130_fd_pr__nfet_01v8_lvt[gds]	admittance
	2	@m.xdut.xm1.msky130_fd_pr__nfet_01v8_lvt[gm]	admittance
	3	i(@m.xdut.xm1.msky130_fd_pr__nfet_01v8_lvt[id])	current
	4	v(@m.xdut.xm1.msky130_fd_pr__nfet_01v8_lvt[vds])	voltage
	5	v(@m.xdut.xm1.msky130_fd_pr__nfet_01v8_lvt[vdsat])	voltage
	6	v(@m.xdut.xm1.msky130_fd_pr__nfet_01v8_lvt[vgs])	voltage
	7	v(@m.xdut.xm1.msky130_fd_pr__nfet_01v8_lvt[vth])	voltage
Values:
 0	4.647144549011472e-01
	9.640715001680037e-07
	7.202628967128735e-05
	2.065101449000724e-05
	9.950673415140238e-01
	3.920582632098017e-01
	9.975336708168205e-01
	4.647144549011472e-01

Title: ** sch_path: /home/slice/xschem/tb_mc_nmos/tb_mc_nmos.sch
Date: Sat Aug 10 21:34:41  2024
Plotname: Operating Point
Flags: real
No. Variables: 8
No. Points: 1
Variables:
	0	v(vth_meas)	voltage
	1	@m.xdut.xm1.msky130_fd_pr__nfet_01v8_lvt[gds]	admittance
	2	@m.xdut.xm1.msky130_fd_pr__nfet_01v8_lvt[gm]	admittance
	3	i(@m.xdut.xm1.msky130_fd_pr__nfet_01v8_lvt[id])	current
	4	v(@m.xdut.xm1.msky130_fd_pr__nfet_01v8_lvt[vds])	voltage
	5	v(@m.xdut.xm1.msky130_fd_pr__nfet_01v8_lvt[vdsat])	voltage
	6	v(@m.xdut.xm1.msky130_fd_pr__nfet_01v8_lvt[vgs])	voltage
	7	v(@m.xdut.xm1.msky130_fd_pr__nfet_01v8_lvt[vth])	voltage
Values:
 0	4.640661051672917e-01